<?xml version="1.0" encoding="UTF-8"?>

<!-- generated on 2026-01-12T16:12:34.334436+01:00 by Eclipse SUMO sumo 1.25.0
<sumoConfiguration xmlns:xsi="http://www.w3.org/2001/XMLSchema-instance" xsi:noNamespaceSchemaLocation="http://sumo.dlr.de/xsd/sumoConfiguration.xsd">

    <input>
        <net-file value="ff_TSC_modified.net.xml"/>
        <route-files value="ff_heterogeneous.rou.xml"/>
        <additional-files value="outputs_modified.add.xml"/>
    </input>

    <output>
        <summary-output value="summary_modified.xml"/>
        <tripinfo-output value="tripinfo_modified.xml"/>
    </output>

    <time>
        <begin value="0"/>
        <end value="3600"/>
    </time>

    <report>
        <no-step-log value="true"/>
    </report>

    <emissions>
        <device.emissions.probability value="1"/>
    </emissions>

    <gui_only>
        <quit-on-end value="true"/>
    </gui_only>

</sumoConfiguration>
-->

<tripinfos xmlns:xsi="http://www.w3.org/2001/XMLSchema-instance" xsi:noNamespaceSchemaLocation="http://sumo.dlr.de/xsd/tripinfo_file.xsd">
    <tripinfo id="f49.0" depart="4.00" departLane="B0B1_2" departPos="106.12" departSpeed="11.54" departDelay="0.00" arrival="32.00" arrivalLane="B1A1_2" arrivalPos="186.40" arrivalSpeed="10.71" duration="28.00" routeLength="291.39" waitingTime="0.00" waitingCount="0" stopTime="0.00" timeLoss="2.03" rerouteNo="0" devices="tripinfo_f49.0 routing_f49.0 emissions_f49.0" vType="car" speedFactor="0.83" vaporized="">
        <emissions CO_abs="212.64" CO2_abs="54269.38" HC_abs="1.43" PMx_abs="6.23" NOx_abs="18.83" fuel_abs="17593.52" electricity_abs="0.00"/>
    </tripinfo>
    <tripinfo id="f1440.0" depart="14.00" departLane="D1E1_1" departPos="15.38" departSpeed="12.36" departDelay="0.00" arrival="46.00" arrivalLane="E1F1_0" arrivalPos="186.40" arrivalSpeed="11.41" duration="32.00" routeLength="371.02" waitingTime="0.00" waitingCount="0" stopTime="0.00" timeLoss="1.35" rerouteNo="0" devices="tripinfo_f1440.0 routing_f1440.0 emissions_f1440.0" vType="car" speedFactor="0.89" vaporized="">
        <emissions CO_abs="223.34" CO2_abs="57348.53" HC_abs="1.52" PMx_abs="8.59" NOx_abs="20.79" fuel_abs="18591.85" electricity_abs="0.00"/>
    </tripinfo>
    <tripinfo id="f15.0" depart="19.00" departLane="E0E1_1" departPos="16.03" departSpeed="13.90" departDelay="0.00" arrival="49.00" arrivalLane="E1F1_0" arrivalPos="186.40" arrivalSpeed="13.68" duration="30.00" routeLength="365.80" waitingTime="0.00" waitingCount="0" stopTime="0.00" timeLoss="2.73" rerouteNo="0" devices="tripinfo_f15.0 routing_f15.0 emissions_f15.0" vType="car" speedFactor="1.18" vaporized="">
        <emissions CO_abs="418.92" CO2_abs="69335.73" HC_abs="2.80" PMx_abs="7.85" NOx_abs="24.40" fuel_abs="22477.76" electricity_abs="0.00"/>
    </tripinfo>
    <tripinfo id="f226.0" depart="19.00" departLane="F1E1_2" departPos="8.73" departSpeed="12.51" departDelay="0.00" arrival="53.00" arrivalLane="E1E0_2" arrivalPos="186.40" arrivalSpeed="12.32" duration="34.00" routeLength="388.58" waitingTime="0.00" waitingCount="0" stopTime="0.00" timeLoss="1.92" rerouteNo="0" devices="tripinfo_f226.0 routing_f226.0 emissions_f226.0" vType="car" speedFactor="0.90" vaporized="">
        <emissions CO_abs="319.65" CO2_abs="67118.91" HC_abs="2.15" PMx_abs="8.38" NOx_abs="23.80" fuel_abs="21759.20" electricity_abs="0.00"/>
    </tripinfo>
    <tripinfo id="f113.0" depart="36.00" departLane="A4B4_0" departPos="165.38" departSpeed="4.65" departDelay="0.00" arrival="65.00" arrivalLane="B4B5_3" arrivalPos="187.40" arrivalSpeed="13.22" duration="29.00" routeLength="232.13" waitingTime="3.00" waitingCount="1" stopTime="0.00" timeLoss="10.97" rerouteNo="0" devices="tripinfo_f113.0 routing_f113.0 emissions_f113.0" vType="car" speedFactor="1.03" vaporized="">
        <emissions CO_abs="328.36" CO2_abs="78053.58" HC_abs="2.19" PMx_abs="6.40" NOx_abs="26.32" fuel_abs="25303.85" electricity_abs="0.00"/>
    </tripinfo>
    <tripinfo id="f1396.0" depart="21.00" departLane="D1C1_0" departPos="168.79" departSpeed="12.51" departDelay="0.00" arrival="66.00" arrivalLane="B1B0_3" arrivalPos="187.40" arrivalSpeed="12.26" duration="45.00" routeLength="415.12" waitingTime="4.00" waitingCount="1" stopTime="0.00" timeLoss="10.29" rerouteNo="1" devices="tripinfo_f1396.0 routing_f1396.0 emissions_f1396.0" vType="car" speedFactor="0.90" vaporized="">
        <emissions CO_abs="365.09" CO2_abs="94318.65" HC_abs="2.45" PMx_abs="9.44" NOx_abs="32.82" fuel_abs="30576.93" electricity_abs="0.00"/>
    </tripinfo>
    <tripinfo id="f1549.0" depart="6.00" departLane="D3D4_0" departPos="53.06" departSpeed="13.90" departDelay="0.00" arrival="70.00" arrivalLane="E4F4_0" arrivalPos="186.40" arrivalSpeed="13.47" duration="64.00" routeLength="515.17" waitingTime="16.00" waitingCount="1" stopTime="0.00" timeLoss="26.42" rerouteNo="1" devices="tripinfo_f1549.0 routing_f1549.0 emissions_f1549.0" vType="car" speedFactor="1.09" vaporized="">
        <emissions CO_abs="605.15" CO2_abs="142342.82" HC_abs="4.04" PMx_abs="11.18" NOx_abs="49.85" fuel_abs="46145.73" electricity_abs="0.00"/>
    </tripinfo>
    <tripinfo id="f63.0" depart="39.00" departLane="A1B1_2" departPos="21.31" departSpeed="13.90" departDelay="0.00" arrival="85.00" arrivalLane="C1C0_0" arrivalPos="186.40" arrivalSpeed="13.69" duration="46.00" routeLength="560.52" waitingTime="0.00" waitingCount="0" stopTime="0.00" timeLoss="4.23" rerouteNo="1" devices="tripinfo_f63.0 routing_f63.0 emissions_f63.0" vType="car" speedFactor="1.04" vaporized="">
        <emissions CO_abs="536.98" CO2_abs="101451.92" HC_abs="3.62" PMx_abs="13.02" NOx_abs="35.73" fuel_abs="32889.51" electricity_abs="0.00"/>
    </tripinfo>
    <tripinfo id="f212.0" depart="16.00" departLane="F2E2_2" departPos="57.37" departSpeed="12.74" departDelay="0.00" arrival="89.00" arrivalLane="D1D0_2" arrivalPos="186.40" arrivalSpeed="12.04" duration="73.00" routeLength="719.08" waitingTime="3.00" waitingCount="1" stopTime="0.00" timeLoss="14.54" rerouteNo="1" devices="tripinfo_f212.0 routing_f212.0 emissions_f212.0" vType="car" speedFactor="0.92" vaporized="">
        <emissions CO_abs="705.38" CO2_abs="159589.50" HC_abs="4.72" PMx_abs="16.01" NOx_abs="55.16" fuel_abs="51736.88" electricity_abs="0.00"/>
    </tripinfo>
    <tripinfo id="f3281.0" depart="11.00" departLane="D3D2_2" departPos="27.49" departSpeed="12.20" departDelay="0.00" arrival="97.00" arrivalLane="B1B2_1" arrivalPos="174.80" arrivalSpeed="11.53" duration="86.00" routeLength="889.32" waitingTime="0.00" waitingCount="0" stopTime="0.00" timeLoss="10.44" rerouteNo="1" devices="tripinfo_f3281.0 routing_f3281.0 emissions_f3281.0" vType="car" speedFactor="0.88" vaporized="">
        <emissions CO_abs="802.40" CO2_abs="188536.01" HC_abs="5.37" PMx_abs="20.47" NOx_abs="64.92" fuel_abs="61121.12" electricity_abs="0.00"/>
    </tripinfo>
    <tripinfo id="f1395.0" depart="76.00" departLane="D1C1_2" departPos="117.33" departSpeed="13.90" departDelay="0.00" arrival="97.00" arrivalLane="C1C0_2" arrivalPos="186.40" arrivalSpeed="13.16" duration="21.00" routeLength="266.38" waitingTime="0.00" waitingCount="0" stopTime="0.00" timeLoss="1.11" rerouteNo="0" devices="tripinfo_f1395.0 routing_f1395.0 emissions_f1395.0" vType="car" speedFactor="1.03" vaporized="">
        <emissions CO_abs="260.66" CO2_abs="43783.72" HC_abs="1.75" PMx_abs="5.57" NOx_abs="15.68" fuel_abs="14194.16" electricity_abs="0.00"/>
    </tripinfo>
    <tripinfo id="f2031.0" depart="39.00" departLane="B3B2_2" departPos="68.78" departSpeed="13.90" departDelay="0.00" arrival="98.00" arrivalLane="C3D3_2" arrivalPos="172.80" arrivalSpeed="9.78" duration="59.00" routeLength="681.67" waitingTime="0.00" waitingCount="0" stopTime="0.00" timeLoss="7.59" rerouteNo="1" devices="tripinfo_f2031.0 routing_f2031.0 emissions_f2031.0" vType="car" speedFactor="1.01" vaporized="">
        <emissions CO_abs="792.74" CO2_abs="135105.55" HC_abs="5.29" PMx_abs="13.54" NOx_abs="46.86" fuel_abs="43799.43" electricity_abs="0.00"/>
    </tripinfo>
    <tripinfo id="f484.0" depart="79.00" departLane="A2B2_2" departPos="181.66" departSpeed="4.62" departDelay="0.00" arrival="98.00" arrivalLane="B2B3_3" arrivalPos="174.80" arrivalSpeed="12.34" duration="19.00" routeLength="203.25" waitingTime="0.00" waitingCount="0" stopTime="0.00" timeLoss="1.51" rerouteNo="0" devices="tripinfo_f484.0 routing_f484.0 emissions_f484.0" vType="car" speedFactor="0.90" vaporized="">
        <emissions CO_abs="234.25" CO2_abs="52239.61" HC_abs="1.57" PMx_abs="5.58" NOx_abs="17.81" fuel_abs="16935.43" electricity_abs="0.00"/>
    </tripinfo>
    <tripinfo id="f207.0" depart="1.00" departLane="F3E3_2" departPos="138.54" departSpeed="9.44" departDelay="0.00" arrival="107.00" arrivalLane="E4E5_0" arrivalPos="186.40" arrivalSpeed="12.69" duration="106.00" routeLength="443.29" waitingTime="59.00" waitingCount="1" stopTime="0.00" timeLoss="71.07" rerouteNo="1" devices="tripinfo_f207.0 routing_f207.0 emissions_f207.0" vType="car" speedFactor="0.94" vaporized="">
        <emissions CO_abs="559.17" CO2_abs="207295.86" HC_abs="3.72" PMx_abs="10.07" NOx_abs="75.56" fuel_abs="67203.23" electricity_abs="0.00"/>
    </tripinfo>
    <tripinfo id="f1594.0" depart="12.00" departLane="D4D3_0" departPos="57.25" departSpeed="13.08" departDelay="0.00" arrival="107.00" arrivalLane="C4C5_0" arrivalPos="186.40" arrivalSpeed="12.95" duration="95.00" routeLength="692.81" waitingTime="27.00" waitingCount="1" stopTime="0.00" timeLoss="39.94" rerouteNo="1" devices="tripinfo_f1594.0 routing_f1594.0 emissions_f1594.0" vType="car" speedFactor="0.94" vaporized="">
        <emissions CO_abs="798.33" CO2_abs="199708.82" HC_abs="5.31" PMx_abs="14.70" NOx_abs="69.88" fuel_abs="64743.19" electricity_abs="0.00"/>
    </tripinfo>
    <tripinfo id="f29.0" depart="20.00" departLane="D0D1_2" departPos="114.66" departSpeed="13.90" departDelay="0.00" arrival="108.00" arrivalLane="E2F2_0" arrivalPos="186.40" arrivalSpeed="13.16" duration="88.00" routeLength="646.31" waitingTime="22.00" waitingCount="2" stopTime="0.00" timeLoss="39.15" rerouteNo="1" devices="tripinfo_f29.0 routing_f29.0 emissions_f29.0" vType="car" speedFactor="1.04" vaporized="">
        <emissions CO_abs="850.53" CO2_abs="204611.75" HC_abs="5.67" PMx_abs="15.30" NOx_abs="71.50" fuel_abs="66332.56" electricity_abs="0.00"/>
    </tripinfo>
    <tripinfo id="f1139.0" depart="32.00" departLane="B4B3_1" departPos="112.07" departSpeed="13.90" departDelay="0.00" arrival="108.00" arrivalLane="C1C0_1" arrivalPos="186.40" arrivalSpeed="13.01" duration="76.00" routeLength="854.67" waitingTime="4.00" waitingCount="1" stopTime="0.00" timeLoss="12.91" rerouteNo="1" devices="tripinfo_f1139.0 routing_f1139.0 emissions_f1139.0" vType="car" speedFactor="1.03" vaporized="">
        <emissions CO_abs="824.54" CO2_abs="165372.40" HC_abs="5.54" PMx_abs="19.43" NOx_abs="58.65" fuel_abs="53611.73" electricity_abs="0.00"/>
    </tripinfo>
    <tripinfo id="f1254.0" depart="26.00" departLane="C2C3_1" departPos="17.54" departSpeed="13.90" departDelay="0.00" arrival="110.00" arrivalLane="B2A2_0" arrivalPos="186.40" arrivalSpeed="13.10" duration="84.00" routeLength="745.72" waitingTime="15.00" waitingCount="2" stopTime="0.00" timeLoss="29.01" rerouteNo="1" devices="tripinfo_f1254.0 routing_f1254.0 emissions_f1254.0" vType="car" speedFactor="1.14" vaporized="">
        <emissions CO_abs="906.04" CO2_abs="189209.36" HC_abs="6.04" PMx_abs="15.46" NOx_abs="65.76" fuel_abs="61339.16" electricity_abs="0.00"/>
    </tripinfo>
    <tripinfo id="f857.0" depart="58.00" departLane="F4E4_0" departPos="101.52" departSpeed="13.90" departDelay="0.00" arrival="120.00" arrivalLane="E2D2_1" arrivalPos="172.80" arrivalSpeed="11.27" duration="62.00" routeLength="664.02" waitingTime="1.00" waitingCount="1" stopTime="0.00" timeLoss="12.69" rerouteNo="1" devices="tripinfo_f857.0 routing_f857.0 emissions_f857.0" vType="car" speedFactor="1.00" vaporized="">
        <emissions CO_abs="824.85" CO2_abs="154165.64" HC_abs="5.51" PMx_abs="14.72" NOx_abs="52.66" fuel_abs="49978.41" electricity_abs="0.00"/>
    </tripinfo>
    <tripinfo id="f222.0" depart="34.00" departLane="F2E2_2" departPos="176.11" departSpeed="5.14" departDelay="0.00" arrival="122.00" arrivalLane="E4E5_0" arrivalPos="186.40" arrivalSpeed="13.64" duration="88.00" routeLength="605.72" waitingTime="32.00" waitingCount="1" stopTime="0.00" timeLoss="43.01" rerouteNo="1" devices="tripinfo_f222.0 routing_f222.0 emissions_f222.0" vType="car" speedFactor="1.01" vaporized="">
        <emissions CO_abs="779.10" CO2_abs="194515.77" HC_abs="5.20" PMx_abs="14.56" NOx_abs="69.75" fuel_abs="63059.75" electricity_abs="0.00"/>
    </tripinfo>
    <tripinfo id="f50.0" depart="53.00" departLane="B0B1_2" departPos="43.17" departSpeed="13.08" departDelay="1.00" arrival="128.00" arrivalLane="B2A2_2" arrivalPos="186.40" arrivalSpeed="12.54" duration="75.00" routeLength="554.34" waitingTime="22.00" waitingCount="1" stopTime="0.00" timeLoss="31.83" rerouteNo="1" devices="tripinfo_f50.0 routing_f50.0 emissions_f50.0" vType="car" speedFactor="0.94" vaporized="">
        <emissions CO_abs="603.58" CO2_abs="158751.03" HC_abs="4.03" PMx_abs="12.16" NOx_abs="55.94" fuel_abs="51465.23" electricity_abs="0.00"/>
    </tripinfo>
    <tripinfo id="f50.1" depart="60.00" departLane="B0B1_3" departPos="54.99" departSpeed="13.90" departDelay="1.00" arrival="130.00" arrivalLane="B2A2_2" arrivalPos="186.40" arrivalSpeed="13.23" duration="70.00" routeLength="542.52" waitingTime="18.00" waitingCount="1" stopTime="0.00" timeLoss="30.08" rerouteNo="1" devices="tripinfo_f50.1 routing_f50.1 emissions_f50.1" vType="car" speedFactor="1.11" vaporized="">
        <emissions CO_abs="693.88" CO2_abs="158276.77" HC_abs="4.62" PMx_abs="12.05" NOx_abs="55.76" fuel_abs="51311.43" electricity_abs="0.00"/>
    </tripinfo>
    <tripinfo id="f752.0" depart="92.00" departLane="D5D4_1" departPos="78.13" departSpeed="13.90" departDelay="1.00" arrival="135.00" arrivalLane="D3C3_1" arrivalPos="172.80" arrivalSpeed="9.98" duration="43.00" routeLength="490.10" waitingTime="0.00" waitingCount="0" stopTime="0.00" timeLoss="6.76" rerouteNo="1" devices="tripinfo_f752.0 routing_f752.0 emissions_f752.0" vType="car" speedFactor="1.02" vaporized="">
        <emissions CO_abs="535.03" CO2_abs="100230.76" HC_abs="3.58" PMx_abs="10.80" NOx_abs="34.62" fuel_abs="32493.54" electricity_abs="0.00"/>
    </tripinfo>
    <tripinfo id="f83.0" depart="48.00" departLane="A2B2_1" departPos="175.35" departSpeed="7.78" departDelay="0.00" arrival="139.00" arrivalLane="B4B5_1" arrivalPos="187.40" arrivalSpeed="13.03" duration="91.00" routeLength="622.16" waitingTime="31.00" waitingCount="2" stopTime="0.00" timeLoss="43.23" rerouteNo="1" devices="tripinfo_f83.0 routing_f83.0 emissions_f83.0" vType="car" speedFactor="0.96" vaporized="">
        <emissions CO_abs="665.76" CO2_abs="194633.22" HC_abs="4.46" PMx_abs="15.00" NOx_abs="69.35" fuel_abs="63097.78" electricity_abs="0.00"/>
    </tripinfo>
    <tripinfo id="f944.0" depart="17.00" departLane="F2E2_1" departPos="119.60" departSpeed="13.90" departDelay="0.00" arrival="140.00" arrivalLane="D3C3_2" arrivalPos="172.80" arrivalSpeed="13.09" duration="123.00" routeLength="645.94" waitingTime="65.00" waitingCount="1" stopTime="0.00" timeLoss="75.44" rerouteNo="1" devices="tripinfo_f944.0 routing_f944.0 emissions_f944.0" vType="car" speedFactor="1.18" vaporized="">
        <emissions CO_abs="683.02" CO2_abs="239397.23" HC_abs="4.58" PMx_abs="15.30" NOx_abs="88.01" fuel_abs="77610.19" electricity_abs="0.00"/>
    </tripinfo>
    <tripinfo id="f2995.0" depart="58.00" departLane="D1D2_1" departPos="87.60" departSpeed="13.24" departDelay="0.00" arrival="142.00" arrivalLane="E3E2_0" arrivalPos="172.80" arrivalSpeed="13.03" duration="84.00" routeLength="648.86" waitingTime="19.00" waitingCount="1" stopTime="0.00" timeLoss="32.59" rerouteNo="1" devices="tripinfo_f2995.0 routing_f2995.0 emissions_f2995.0" vType="car" speedFactor="0.95" vaporized="">
        <emissions CO_abs="861.13" CO2_abs="194579.68" HC_abs="5.73" PMx_abs="14.82" NOx_abs="67.76" fuel_abs="63080.23" electricity_abs="0.00"/>
    </tripinfo>
    <tripinfo id="f1611.0" depart="29.00" departLane="D4E4_0" departPos="24.39" departSpeed="13.02" departDelay="0.00" arrival="145.00" arrivalLane="D4D5_0" arrivalPos="186.40" arrivalSpeed="12.26" duration="116.00" routeLength="907.50" waitingTime="25.00" waitingCount="2" stopTime="0.00" timeLoss="43.77" rerouteNo="1" devices="tripinfo_f1611.0 routing_f1611.0 emissions_f1611.0" vType="car" speedFactor="0.94" vaporized="">
        <emissions CO_abs="874.37" CO2_abs="244945.59" HC_abs="5.85" PMx_abs="21.09" NOx_abs="86.12" fuel_abs="79408.50" electricity_abs="0.00"/>
    </tripinfo>
    <tripinfo id="f200.0" depart="14.00" departLane="F3E3_1" departPos="44.99" departSpeed="13.54" departDelay="0.00" arrival="154.00" arrivalLane="B1A1_0" arrivalPos="186.40" arrivalSpeed="13.41" duration="140.00" routeLength="1313.29" waitingTime="25.00" waitingCount="1" stopTime="0.00" timeLoss="41.05" rerouteNo="1" devices="tripinfo_f200.0 routing_f200.0 emissions_f200.0" vType="car" speedFactor="0.97" vaporized="">
        <emissions CO_abs="1409.93" CO2_abs="313660.60" HC_abs="9.44" PMx_abs="30.51" NOx_abs="110.67" fuel_abs="101685.10" electricity_abs="0.00"/>
    </tripinfo>
    <tripinfo id="f97.0" depart="17.00" departLane="A3B3_1" departPos="108.12" departSpeed="13.90" departDelay="0.00" arrival="154.00" arrivalLane="B4A4_2" arrivalPos="186.40" arrivalSpeed="13.30" duration="137.00" routeLength="486.90" waitingTime="83.00" waitingCount="3" stopTime="0.00" timeLoss="101.26" rerouteNo="1" devices="tripinfo_f97.0 routing_f97.0 emissions_f97.0" vType="car" speedFactor="1.13" vaporized="">
        <emissions CO_abs="590.68" CO2_abs="259594.70" HC_abs="3.94" PMx_abs="11.96" NOx_abs="95.67" fuel_abs="84158.03" electricity_abs="0.00"/>
    </tripinfo>
    <tripinfo id="f144.1" depart="17.00" departLane="C5C4_2" departPos="177.99" departSpeed="6.45" departDelay="0.00" arrival="154.00" arrivalLane="B4B5_1" arrivalPos="187.40" arrivalSpeed="12.64" duration="137.00" routeLength="385.88" waitingTime="94.00" waitingCount="2" stopTime="0.00" timeLoss="105.64" rerouteNo="1" devices="tripinfo_f144.1 routing_f144.1 emissions_f144.1" vType="car" speedFactor="0.93" vaporized="">
        <emissions CO_abs="487.60" CO2_abs="254504.89" HC_abs="3.25" PMx_abs="9.28" NOx_abs="94.44" fuel_abs="82508.06" electricity_abs="0.00"/>
    </tripinfo>
    <tripinfo id="f34.0" depart="73.00" departLane="C0C1_2" departPos="46.49" departSpeed="13.28" departDelay="0.00" arrival="155.00" arrivalLane="B1A1_1" arrivalPos="186.40" arrivalSpeed="12.34" duration="82.00" routeLength="550.82" waitingTime="23.00" waitingCount="3" stopTime="0.00" timeLoss="39.70" rerouteNo="1" devices="tripinfo_f34.0 routing_f34.0 emissions_f34.0" vType="car" speedFactor="0.96" vaporized="">
        <emissions CO_abs="466.27" CO2_abs="156219.12" HC_abs="3.14" PMx_abs="12.37" NOx_abs="56.31" fuel_abs="50644.56" electricity_abs="0.00"/>
    </tripinfo>
    <tripinfo id="f144.0" depart="14.00" departLane="C5C4_2" departPos="41.59" departSpeed="13.90" departDelay="0.00" arrival="156.00" arrivalLane="B4B5_1" arrivalPos="187.40" arrivalSpeed="13.45" duration="142.00" routeLength="522.28" waitingTime="81.00" waitingCount="2" stopTime="0.00" timeLoss="102.52" rerouteNo="1" devices="tripinfo_f144.0 routing_f144.0 emissions_f144.0" vType="car" speedFactor="1.01" vaporized="">
        <emissions CO_abs="636.93" CO2_abs="262870.15" HC_abs="4.24" PMx_abs="11.22" NOx_abs="96.87" fuel_abs="85219.87" electricity_abs="0.00"/>
    </tripinfo>
    <tripinfo id="f203.0" depart="24.00" departLane="F3E3_2" departPos="132.48" departSpeed="11.17" departDelay="0.00" arrival="156.00" arrivalLane="B4A4_1" arrivalPos="186.40" arrivalSpeed="13.51" duration="132.00" routeLength="1046.66" waitingTime="43.00" waitingCount="1" stopTime="0.00" timeLoss="55.30" rerouteNo="1" devices="tripinfo_f203.0 routing_f203.0 emissions_f203.0" vType="car" speedFactor="1.10" vaporized="">
        <emissions CO_abs="1110.33" CO2_abs="269974.71" HC_abs="7.43" PMx_abs="23.11" NOx_abs="97.85" fuel_abs="87522.83" electricity_abs="0.00"/>
    </tripinfo>
    <tripinfo id="f440.0" depart="72.00" departLane="A1B1_1" departPos="10.60" departSpeed="13.90" departDelay="0.00" arrival="156.00" arrivalLane="B3C3_1" arrivalPos="172.80" arrivalSpeed="5.28" duration="84.00" routeLength="755.35" waitingTime="17.00" waitingCount="1" stopTime="0.00" timeLoss="28.59" rerouteNo="1" devices="tripinfo_f440.0 routing_f440.0 emissions_f440.0" vType="car" speedFactor="1.14" vaporized="">
        <emissions CO_abs="766.84" CO2_abs="175811.27" HC_abs="5.14" PMx_abs="17.21" NOx_abs="63.10" fuel_abs="56995.99" electricity_abs="0.00"/>
    </tripinfo>
    <tripinfo id="f12.0" depart="86.00" departLane="E0E1_2" departPos="125.63" departSpeed="13.49" departDelay="0.00" arrival="156.00" arrivalLane="E4F4_0" arrivalPos="186.40" arrivalSpeed="12.87" duration="70.00" routeLength="856.20" waitingTime="0.00" waitingCount="0" stopTime="0.00" timeLoss="4.92" rerouteNo="1" devices="tripinfo_f12.0 routing_f12.0 emissions_f12.0" vType="car" speedFactor="0.97" vaporized="">
        <emissions CO_abs="707.04" CO2_abs="139497.75" HC_abs="4.76" PMx_abs="18.60" NOx_abs="49.72" fuel_abs="45223.62" electricity_abs="0.00"/>
    </tripinfo>
    <tripinfo id="f34.1" depart="99.00" departLane="C0C1_1" departPos="110.93" departSpeed="13.75" departDelay="0.00" arrival="156.00" arrivalLane="B1A1_2" arrivalPos="186.40" arrivalSpeed="13.33" duration="57.00" routeLength="486.38" waitingTime="13.00" waitingCount="1" stopTime="0.00" timeLoss="21.05" rerouteNo="1" devices="tripinfo_f34.1 routing_f34.1 emissions_f34.1" vType="car" speedFactor="0.99" vaporized="">
        <emissions CO_abs="519.09" CO2_abs="119164.91" HC_abs="3.47" PMx_abs="10.07" NOx_abs="42.10" fuel_abs="38631.84" electricity_abs="0.00"/>
    </tripinfo>
    <tripinfo id="f181.0" depart="19.00" departLane="F4E4_0" departPos="38.62" departSpeed="13.90" departDelay="0.00" arrival="157.00" arrivalLane="E1E0_0" arrivalPos="186.40" arrivalSpeed="13.03" duration="138.00" routeLength="958.69" waitingTime="47.00" waitingCount="2" stopTime="0.00" timeLoss="68.15" rerouteNo="1" devices="tripinfo_f181.0 routing_f181.0 emissions_f181.0" vType="car" speedFactor="1.10" vaporized="">
        <emissions CO_abs="1049.64" CO2_abs="291532.78" HC_abs="7.02" PMx_abs="22.57" NOx_abs="103.38" fuel_abs="94511.54" electricity_abs="0.00"/>
    </tripinfo>
    <tripinfo id="f1552.0" depart="51.00" departLane="D3D4_0" departPos="127.70" departSpeed="13.90" departDelay="0.00" arrival="158.00" arrivalLane="E1F1_2" arrivalPos="186.40" arrivalSpeed="12.94" duration="107.00" routeLength="1019.67" waitingTime="10.00" waitingCount="2" stopTime="0.00" timeLoss="31.48" rerouteNo="1" devices="tripinfo_f1552.0 routing_f1552.0 emissions_f1552.0" vType="car" speedFactor="1.07" vaporized="">
        <emissions CO_abs="1275.49" CO2_abs="260571.05" HC_abs="8.52" PMx_abs="23.67" NOx_abs="90.51" fuel_abs="84473.67" electricity_abs="0.00"/>
    </tripinfo>
    <tripinfo id="f1256.0" depart="57.00" departLane="C2C3_2" departPos="5.44" departSpeed="13.90" departDelay="0.00" arrival="158.00" arrivalLane="B4A4_1" arrivalPos="186.40" arrivalSpeed="13.44" duration="101.00" routeLength="778.27" waitingTime="27.00" waitingCount="2" stopTime="0.00" timeLoss="43.75" rerouteNo="1" devices="tripinfo_f1256.0 routing_f1256.0 emissions_f1256.0" vType="car" speedFactor="1.01" vaporized="">
        <emissions CO_abs="936.74" CO2_abs="216374.02" HC_abs="6.24" PMx_abs="16.05" NOx_abs="76.05" fuel_abs="70145.81" electricity_abs="0.00"/>
    </tripinfo>
    <tripinfo id="f755.0" depart="71.00" departLane="D5D4_2" departPos="159.43" departSpeed="12.45" departDelay="0.00" arrival="158.00" arrivalLane="D3E3_2" arrivalPos="172.80" arrivalSpeed="11.64" duration="87.00" routeLength="424.28" waitingTime="39.00" waitingCount="3" stopTime="0.00" timeLoss="51.57" rerouteNo="1" devices="tripinfo_f755.0 routing_f755.0 emissions_f755.0" vType="car" speedFactor="0.90" vaporized="">
        <emissions CO_abs="453.67" CO2_abs="173382.34" HC_abs="3.02" PMx_abs="9.72" NOx_abs="61.68" fuel_abs="56208.60" electricity_abs="0.00"/>
    </tripinfo>
    <tripinfo id="f1614.0" depart="73.00" departLane="D4E4_0" departPos="93.38" departSpeed="12.77" departDelay="0.00" arrival="158.00" arrivalLane="E3F3_2" arrivalPos="186.40" arrivalSpeed="11.96" duration="85.00" routeLength="472.16" waitingTime="37.00" waitingCount="1" stopTime="0.00" timeLoss="46.08" rerouteNo="1" devices="tripinfo_f1614.0 routing_f1614.0 emissions_f1614.0" vType="car" speedFactor="0.92" vaporized="">
        <emissions CO_abs="473.87" CO2_abs="165212.42" HC_abs="3.16" PMx_abs="10.62" NOx_abs="59.49" fuel_abs="53560.08" electricity_abs="0.00"/>
    </tripinfo>
    <tripinfo id="f1586.0" depart="76.00" departLane="D4D3_2" departPos="140.97" departSpeed="13.90" departDelay="0.00" arrival="158.00" arrivalLane="D1D0_0" arrivalPos="186.40" arrivalSpeed="13.34" duration="82.00" routeLength="645.43" waitingTime="18.00" waitingCount="2" stopTime="0.00" timeLoss="34.83" rerouteNo="1" devices="tripinfo_f1586.0 routing_f1586.0 emissions_f1586.0" vType="car" speedFactor="1.03" vaporized="">
        <emissions CO_abs="755.93" CO2_abs="181157.36" HC_abs="5.05" PMx_abs="14.81" NOx_abs="63.37" fuel_abs="58728.93" electricity_abs="0.00"/>
    </tripinfo>
    <tripinfo id="f33.0" depart="115.00" departLane="C0C1_1" departPos="50.30" departSpeed="13.46" departDelay="0.00" arrival="163.00" arrivalLane="B1B0_3" arrivalPos="187.40" arrivalSpeed="13.38" duration="48.00" routeLength="544.52" waitingTime="0.00" waitingCount="0" stopTime="0.00" timeLoss="5.67" rerouteNo="1" devices="tripinfo_f33.0 routing_f33.0 emissions_f33.0" vType="car" speedFactor="0.97" vaporized="">
        <emissions CO_abs="626.28" CO2_abs="113244.91" HC_abs="4.18" PMx_abs="11.92" NOx_abs="39.27" fuel_abs="36712.54" electricity_abs="0.00"/>
    </tripinfo>
    <tripinfo id="f330.0" depart="115.00" departLane="D0D1_1" departPos="136.74" departSpeed="13.79" departDelay="0.00" arrival="167.00" arrivalLane="E2E1_0" arrivalPos="172.80" arrivalSpeed="13.16" duration="52.00" routeLength="613.32" waitingTime="0.00" waitingCount="0" stopTime="0.00" timeLoss="6.02" rerouteNo="1" devices="tripinfo_f330.0 routing_f330.0 emissions_f330.0" vType="car" speedFactor="0.99" vaporized="">
        <emissions CO_abs="642.00" CO2_abs="124567.73" HC_abs="4.31" PMx_abs="15.00" NOx_abs="43.60" fuel_abs="40383.37" electricity_abs="0.00"/>
    </tripinfo>
    <tripinfo id="f35.0" depart="51.00" departLane="C0C1_0" departPos="15.86" departSpeed="13.77" departDelay="0.00" arrival="171.00" arrivalLane="B2A2_1" arrivalPos="186.40" arrivalSpeed="13.06" duration="120.00" routeLength="781.45" waitingTime="34.00" waitingCount="3" stopTime="0.00" timeLoss="62.01" rerouteNo="1" devices="tripinfo_f35.0 routing_f35.0 emissions_f35.0" vType="car" speedFactor="0.99" vaporized="">
        <emissions CO_abs="929.80" CO2_abs="258467.26" HC_abs="6.21" PMx_abs="18.46" NOx_abs="90.46" fuel_abs="83791.90" electricity_abs="0.00"/>
    </tripinfo>
    <tripinfo id="f217.0" depart="22.00" departLane="F2E2_1" departPos="116.54" departSpeed="13.90" departDelay="0.00" arrival="177.00" arrivalLane="B3A3_0" arrivalPos="186.40" arrivalSpeed="13.89" duration="155.00" routeLength="1062.60" waitingTime="58.00" waitingCount="2" stopTime="0.00" timeLoss="77.14" rerouteNo="1" devices="tripinfo_f217.0 routing_f217.0 emissions_f217.0" vType="car" speedFactor="1.17" vaporized="">
        <emissions CO_abs="1184.44" CO2_abs="325824.66" HC_abs="7.94" PMx_abs="25.48" NOx_abs="117.01" fuel_abs="105628.81" electricity_abs="0.00"/>
    </tripinfo>
    <tripinfo id="f180.0" depart="22.00" departLane="E5E4_2" departPos="56.43" departSpeed="11.87" departDelay="0.00" arrival="178.00" arrivalLane="E1F1_2" arrivalPos="186.40" arrivalSpeed="11.49" duration="156.00" routeLength="940.88" waitingTime="59.00" waitingCount="2" stopTime="0.00" timeLoss="76.03" rerouteNo="1" devices="tripinfo_f180.0 routing_f180.0 emissions_f180.0" vType="car" speedFactor="0.85" vaporized="">
        <emissions CO_abs="784.26" CO2_abs="292032.42" HC_abs="5.25" PMx_abs="20.78" NOx_abs="105.68" fuel_abs="94673.94" electricity_abs="0.00"/>
    </tripinfo>
    <tripinfo id="f1828.0" depart="45.00" departLane="B1C1_2" departPos="19.81" departSpeed="13.29" departDelay="0.00" arrival="179.00" arrivalLane="B3B2_3" arrivalPos="174.80" arrivalSpeed="12.53" duration="134.00" routeLength="946.12" waitingTime="41.00" waitingCount="3" stopTime="0.00" timeLoss="61.02" rerouteNo="1" devices="tripinfo_f1828.0 routing_f1828.0 emissions_f1828.0" vType="car" speedFactor="0.96" vaporized="">
        <emissions CO_abs="965.48" CO2_abs="275051.90" HC_abs="6.46" PMx_abs="21.73" NOx_abs="97.75" fuel_abs="89168.75" electricity_abs="0.00"/>
    </tripinfo>
    <tripinfo id="f1504.0" depart="144.00" departLane="D2E2_0" departPos="163.59" departSpeed="6.85" departDelay="0.00" arrival="180.00" arrivalLane="E1F1_2" arrivalPos="186.40" arrivalSpeed="12.66" duration="36.00" routeLength="401.95" waitingTime="0.00" waitingCount="0" stopTime="0.00" timeLoss="4.29" rerouteNo="1" devices="tripinfo_f1504.0 routing_f1504.0 emissions_f1504.0" vType="car" speedFactor="0.96" vaporized="">
        <emissions CO_abs="436.28" CO2_abs="87447.56" HC_abs="2.91" PMx_abs="10.00" NOx_abs="30.59" fuel_abs="28349.46" electricity_abs="0.00"/>
    </tripinfo>